file 23829070 1735830768                                        
version 3
run General-1-20250102-16:12:43-6948
attr configname General
attr datetime 20250102-16:12:43
attr datetimef 20250102-161243
attr experiment General
attr inifile omnetpp.ini
attr iterationvars "$0=10, $1=4, $2=false"
attr iterationvarsd 10/4/false
attr iterationvarsf 10,4,false-
attr measurement "$0=10, $1=4, $2=false"
attr network DiskSimulation
attr processid 6948
attr repetition 1
attr replication #1
attr resultdir results
attr runnumber 1
attr seedset 1
config ned-path C:/Users/andrea/Downloads/omnetpp-6.1-windows-x86_64/omnetpp-6.1/samples/HardDiskWriteOperations/src;C:/Users/andrea/Downloads/omnetpp-6.1-windows-x86_64/omnetpp-6.1/samples/HardDiskWriteOperations/simulations
config network DiskSimulation
config cpu-time-limit 200s
config sim-time-limit 10000s
config *.*.writeSpeed 500.0
config *.*.seekTime 0.001
config *.*.interChunkDelay 0.001
config *.process[*].processId index
config repeat 10
config seed-set 1
config *.N 10
config *.*.maxChunkSize 4
config *.process[*].uniformWriteSizes false
config *.process[*].meanInterArrivalDist 3.0
config *.process[*].meanWriteSizeForExponential 64
config *.process[*].writeSizeForUniform "uniform(0, 64)"

vector 0 DiskSimulation.process[0] meanResponseTime:vector ETV
attr recordingmode vector
attr source writeRequestResponseTime
vector 1 DiskSimulation.process[1] meanResponseTime:vector ETV
attr recordingmode vector
attr source writeRequestResponseTime
vector 2 DiskSimulation.process[2] meanResponseTime:vector ETV
attr recordingmode vector
attr source writeRequestResponseTime
vector 3 DiskSimulation.process[3] meanResponseTime:vector ETV
attr recordingmode vector
attr source writeRequestResponseTime
vector 4 DiskSimulation.process[4] meanResponseTime:vector ETV
attr recordingmode vector
attr source writeRequestResponseTime
vector 5 DiskSimulation.process[5] meanResponseTime:vector ETV
attr recordingmode vector
attr source writeRequestResponseTime
vector 6 DiskSimulation.process[6] meanResponseTime:vector ETV
attr recordingmode vector
attr source writeRequestResponseTime
vector 7 DiskSimulation.process[7] meanResponseTime:vector ETV
attr recordingmode vector
attr source writeRequestResponseTime
vector 8 DiskSimulation.process[8] meanResponseTime:vector ETV
attr recordingmode vector
attr source writeRequestResponseTime
vector 9 DiskSimulation.process[9] meanResponseTime:vector ETV
attr recordingmode vector
attr source writeRequestResponseTime
vector 10 DiskSimulation.disk writeFileTimeStats:vector ETV
attr recordingmode vector
attr source writeFileTime
vector 11 DiskSimulation.disk writeChunkTimeStats:vector ETV
attr recordingmode vector
attr source writeChunkTime
vector 12 DiskSimulation.disk queueLengthStats:vector ETV
attr recordingmode vector
attr source queueLength
11	2847 1160979 2 40687 0.000343162868 596.197926702109 32768 0.002001 0.008001 256.55676800006 2.0339450807671
11	1163826 1186100 40688 81509 596.205927702109 1171.42637875668 32768 0.002001 0.008001 256.43676800006 2.0325848407671
11	2349926 1226501 81510 122569 1171.43437975668 1776.740710483775 32768 0.002001 0.008001 256.31876800006 2.0318606047671
11	3576427 1240565 122570 163323 1776.748711483775 2391.121899770965 32768 0.002001 0.008001 256.56876800006 2.0339931047671
11	4816992 1242213 163324 204241 2391.129900770965 3005.200120204877 32768 0.002001 0.008001 256.53876800006 2.0336930447671
11	6059205 1240246 204242 245353 3005.208121204877 3627.063563294016 32768 0.002001 0.008001 256.41076800006 2.0325727887671
11	7299451 1242584 245354 285945 3627.071564294016 4218.052360839966 32768 0.002001 0.008001 256.56476800006 2.0343850967671
11	8542035 1242301 285946 326729 4218.060361839966 4812.964039985134 32768 0.002001 0.008001 256.45276800006 2.0329768727671
11	9784336 1241772 326730 367427 4812.972040985134 5403.655145222907 32768 0.002001 0.008001 256.43476800006 2.0329488367671
11	11026108 1241203 367428 408529 5403.663146222907 6044.607211402411 32768 0.002001 0.008001 256.27676800006 2.0310165207671
11	12267311 1241206 408530 449679 6044.615212402411 6684.462389939543 32768 0.002001 0.008001 256.41276800006 2.0323527927671
11	13508517 1242407 449680 490585 6684.470390939543 7287.38698299446 32768 0.002001 0.008001 256.22276800006 2.0304524127671
11	14750924 1242385 490586 531481 7287.39498399446 7891.481044650533 32768 0.002001 0.008001 256.44476800006 2.0330168567671
11	15993309 1241828 531482 572037 7891.489045650533 8450.263138230821 32768 0.002001 0.008001 256.47676800006 2.0333129207671
11	17235137 1242035 572038 612843 8450.271139230821 9051.901759288867 32768 0.002001 0.008001 256.54476800006 2.0340570567671
11	18477172 1241406 612844 653767 9051.909760288867 9671.008563442549 32768 0.002001 0.008001 256.38276800006 2.0320527327671
10	19718578 1228519 4 661478 0.012345162868 9780.134374898697 32768 1e-06 1.200151 4011.0948650001 1018.5443818587
0	20947097 127317 104 675880 1.618817479536 9998.253984994732 3279 0 2.357592587256 746.86023419489 334.68687884781
1	21074414 130477 1176 675901 17.618174582944 9999.865064124297 3356 0 1.766200894227 756.13296822649 344.25622698858
2	21204891 130869 277 675851 4.073625327567 9995.813813978217 3368 0 1.844012955577 759.21707734999 347.25279262534
3	21335760 127743 594 675890 8.172932690664 9999.329293901869 3292 0 2.249608534976 735.62123960385 337.3926355302
4	21463503 129114 5 675757 0.012345162868 9993.547109910493 3329 0 1.751542428976 755.37885473745 339.33246299127
5	21592617 131883 17 675861 0.473333741779 9996.869943044334 3401 0 2.311865446917 753.50523603163 347.41998119993
6	21724500 132645 86 675770 1.226057243568 9993.629531596485 3412 0 2.394656825044 761.81001823922 343.78423413339
7	21857145 130404 1337 675908 20.86734586201 9999.952052332696 3355 0 2.000320431387 742.38163988878 327.87442951572
8	21987549 130418 29 675360 0.540136791679 9986.619302715256 3367 0 1.889456522541 756.16728206699 343.02258123501
9	22117967 130655 63 675857 1.045941873029 9996.406390782934 3359 0 1.942772991412 750.14321580475 331.73300758782
10	22248622 28329 661488 675907 9780.286016618811 9999.952052332696 750 1e-06 0.960121 86.143489 21.447492797239
11	22276951 665321 653768 675906 9671.016564442549 9999.946051332696 17549 0.002001 0.008001 137.27154899996 1.0877185255491
12	22942272 886796 169 675799 3.310507315602 9994.108337701642 28970 0 16 36743 94609

