file 23974178 1735840420                                        
version 3
run General-0-20250102-18:53:37-10232
attr configname General
attr datetime 20250102-18:53:37
attr datetimef 20250102-185337
attr experiment General
attr inifile omnetpp.ini
attr iterationvars "$0=10, $1=4, $2=false"
attr iterationvarsd 10/4/false
attr iterationvarsf 10,4,false-
attr measurement "$0=10, $1=4, $2=false"
attr network DiskSimulation
attr processid 10232
attr repetition 0
attr replication #0
attr resultdir results
attr runnumber 0
attr seedset 0
config ned-path C:/Users/andrea/Downloads/omnetpp-6.1-windows-x86_64/omnetpp-6.1/samples/HardDiskWriteOperations/src;C:/Users/andrea/Downloads/omnetpp-6.1-windows-x86_64/omnetpp-6.1/samples/HardDiskWriteOperations/simulations
config network DiskSimulation
config cpu-time-limit 200s
config sim-time-limit 10000s
config *.*.writeSpeed 500.0
config *.*.seekTime 0.001
config *.*.interChunkDelay 0.001
config *.process[*].processId index
config repeat 10
config seed-set 0
config *.N 10
config *.*.maxChunkSize 4
config *.process[*].uniformWriteSizes false
config *.process[*].meanInterArrivalDist 3.0
config *.process[*].meanWriteSizeForExponential 64
config *.process[*].writeSizeForUniform "uniform(0, 64)"

vector 0 DiskSimulation.process[0] meanResponseTime:vector ETV
attr recordingmode vector
attr source writeRequestResponseTime
vector 1 DiskSimulation.process[1] meanResponseTime:vector ETV
attr recordingmode vector
attr source writeRequestResponseTime
vector 2 DiskSimulation.process[2] meanResponseTime:vector ETV
attr recordingmode vector
attr source writeRequestResponseTime
vector 3 DiskSimulation.process[3] meanResponseTime:vector ETV
attr recordingmode vector
attr source writeRequestResponseTime
vector 4 DiskSimulation.process[4] meanResponseTime:vector ETV
attr recordingmode vector
attr source writeRequestResponseTime
vector 5 DiskSimulation.process[5] meanResponseTime:vector ETV
attr recordingmode vector
attr source writeRequestResponseTime
vector 6 DiskSimulation.process[6] meanResponseTime:vector ETV
attr recordingmode vector
attr source writeRequestResponseTime
vector 7 DiskSimulation.process[7] meanResponseTime:vector ETV
attr recordingmode vector
attr source writeRequestResponseTime
vector 8 DiskSimulation.process[8] meanResponseTime:vector ETV
attr recordingmode vector
attr source writeRequestResponseTime
vector 9 DiskSimulation.process[9] meanResponseTime:vector ETV
attr recordingmode vector
attr source writeRequestResponseTime
vector 10 DiskSimulation.disk writeFileTimeStats:vector ETV
attr recordingmode vector
attr source writeFileTime
vector 11 DiskSimulation.disk writeChunkTimeStats:vector ETV
attr recordingmode vector
attr source writeChunkTime
vector 12 DiskSimulation.disk queueLengthStats:vector ETV
attr recordingmode vector
attr source queueLength
11	2849 1160735 2 40679 1.653145460011 609.778760561015 32768 0.002001 0.008001 256.66876800006 2.0355613047671
11	1163584 1188293 40680 81573 609.786761561015 1218.385951143522 32768 0.002001 0.008001 256.67076800006 2.0349813087671
11	2351877 1227046 81574 122837 1218.393952143522 1824.453713691306 32768 0.002001 0.008001 256.12076800006 2.0294562087671
11	3578923 1242006 122838 163631 1824.461714691306 2401.025905674659 32768 0.002001 0.008001 256.56676800006 2.0341331007671
11	4820929 1241866 163632 204699 2401.033906674659 2996.344931093963 32768 0.002001 0.008001 256.39076800006 2.0321807487671
11	6062795 1240032 204700 245529 2996.352932093963 3581.273546282487 32768 0.002001 0.008001 256.61676800006 2.0347852007671
11	7302827 1241335 245530 286053 3581.281547282487 4174.896215389596 32768 0.002001 0.008001 256.74276800006 2.0362854527671
11	8544162 1241302 286054 326969 4174.904216389596 4790.528065421635 32768 0.002001 0.008001 256.46476800006 2.0329768967671
11	9785464 1241790 326970 368097 4790.536066421635 5420.9843434358 32768 0.002001 0.008001 256.34276800006 2.0312286527671
11	11027254 1241278 368098 408927 5420.9923444358 6015.807360191892 32768 0.002001 0.008001 256.56476800006 2.0341770967671
11	12268532 1241136 408928 449833 6015.815361191892 6619.035255719244 32768 0.002001 0.008001 256.33276800006 2.0319046327671
11	13509668 1241738 449834 490857 6619.043256719244 7229.851443856314 32768 0.002001 0.008001 256.36876800006 2.0316087047671
11	14751406 1241388 490862 531587 7230.445173687314 7842.666709064876 32768 0.002001 0.008001 256.78076800006 2.0364095287671
11	15992794 1241870 531588 572329 7842.674710064876 8423.7279782524 32768 0.002001 0.008001 256.42476800006 2.0326088167671
11	17234664 1241365 572330 613239 8423.7359792524 9022.619089393618 32768 0.002001 0.008001 256.48876800006 2.0331129447671
11	18476029 1241544 613240 654371 9022.627090393618 9639.831924546114 32768 0.002001 0.008001 256.18276800006 2.0301563327671
10	19717573 1228240 19 659242 1.785162460011 9719.62025015757 32768 1e-06 1.328167 3993.5286720002 1008.3584088553
0	20945813 129446 91 680033 2.829662419946 9997.460778426311 3339 0 1.374261738846 718.75454791538 298.07526982924
1	21075259 130895 104 680179 2.911673419946 9999.13608038034 3381 0 1.838000672082 744.717170567 324.30652088989
2	21206154 130836 332 680206 4.501875419946 9999.30210138034 3374 0 1.89276693982 729.4406508275 310.54656998396
3	21336990 130865 395 679448 5.772837636224 9990.259978036543 3369 0 1.865327257248 758.50050296014 344.44987774797
4	21467855 132011 137 680040 3.125700419946 9997.484781426311 3406 0 1.552405931106 754.78101389506 326.03212317841
5	21599866 131261 487 679636 6.414919636224 9993.540487782468 3383 0 1.719647837145 750.85829847796 333.10112320366
6	21731127 128717 32 680190 2.405609419946 9999.19008738034 3310 0 1.852724644739 740.18167172135 324.3831277604
7	21859844 132144 420 680161 5.934858636224 9999.02806638034 3412 0 2.043022627315 751.44801985143 341.28806184723
8	21991988 132113 20 679959 1.785162460011 9996.972716426311 3402 0 1.824822853865 763.46030146569 344.88221860643
9	22124101 130727 147 680102 3.187708419946 9998.004679113234 3368 0 1.635725187404 756.86338799893 331.94458358084
10	22254828 36904 659261 680205 9720.199489867634 9999.30210138034 976 1e-06 0.808102 129.493127 33.670594599221
11	22291732 794994 654372 680221 9639.839925546114 9999.996989883959 20956 0.002001 0.008001 164.23895599998 1.3027164569558
12	23086726 887450 28 680191 2.387623513697 9999.19008738034 28984 0 11 36246 89844

