version 3
run General-0-20241231-16:01:12-18484
attr configname General
attr datetime 20241231-16:01:12
attr datetimef 20241231-160112
attr experiment General
attr inifile omnetpp.ini
attr iterationvars ""
attr iterationvarsd ""
attr iterationvarsf ""
attr measurement ""
attr network DiskSimulation
attr processid 18484
attr repetition 0
attr replication #0
attr resultdir results
attr runnumber 0
attr seedset 0
config network DiskSimulation
config cpu-time-limit 200s
config sim-time-limit 10000s
config *.N 10
config *.uniformInterarrivals true
config *.uniformFileSizes true
config *.maxInterarrivalTime 3s
config *.process[*].processId index
config *.process[*].meanInterArrivalDist 3.0
config *.process[*].uniformWriteSizes false
config *.process[*].meanWriteSizeForExponential 60.0
config *.process[*].writeSizeForUniform "uniform(0, 10)"
config *.*.simulationDuration 10000
config *.*.writeSpeed 100.0
config *.*.seekTime 0.001
config *.*.interChunkDelay 0.001
config *.*.maxChunkSize 10

vector 0 DiskSimulation.process[0] meanResponseTime:vector ETV
attr recordingmode vector
attr source writeRequestResponseTime
vector 1 DiskSimulation.process[1] meanResponseTime:vector ETV
attr recordingmode vector
attr source writeRequestResponseTime
vector 2 DiskSimulation.process[2] meanResponseTime:vector ETV
attr recordingmode vector
attr source writeRequestResponseTime
vector 3 DiskSimulation.process[3] meanResponseTime:vector ETV
attr recordingmode vector
attr source writeRequestResponseTime
vector 4 DiskSimulation.process[4] meanResponseTime:vector ETV
attr recordingmode vector
attr source writeRequestResponseTime
vector 5 DiskSimulation.process[5] meanResponseTime:vector ETV
attr recordingmode vector
attr source writeRequestResponseTime
vector 6 DiskSimulation.process[6] meanResponseTime:vector ETV
attr recordingmode vector
attr source writeRequestResponseTime
vector 7 DiskSimulation.process[7] meanResponseTime:vector ETV
attr recordingmode vector
attr source writeRequestResponseTime
vector 8 DiskSimulation.process[8] meanResponseTime:vector ETV
attr recordingmode vector
attr source writeRequestResponseTime
vector 9 DiskSimulation.process[9] meanResponseTime:vector ETV
attr recordingmode vector
attr source writeRequestResponseTime
vector 10 DiskSimulation.disk writeFileTimeStats:vector ETV
attr recordingmode vector
attr source writeFileTime
vector 11 DiskSimulation.disk writeChunkTimeStats:vector ETV
attr recordingmode vector
attr source writeChunkTime
vector 12 DiskSimulation.disk queueLengthStats:vector ETV
attr recordingmode vector
attr source queueLength
11	2	1.653145460011	0.100001
11	3	1.753146460011	0.100001
11	4	1.853147460011	0.100001
11	5	1.953148460011	0.100001
11	6	2.053149460011	0.100001
11	7	2.153150460011	0.100001
11	8	2.253151460011	0.020001
11	19	2.873159460011	0.100001
11	22	2.973160460011	0.100001
11	23	3.073161460011	0.010001
11	26	3.283165460011	0.100001
11	27	3.383166460011	0.100001
11	28	3.483167460011	0.100001
11	29	3.583168460011	0.100001
11	30	3.683169460011	0.100001
11	33	3.783170460011	0.100001
11	34	3.883171460011	0.100001
11	35	3.983172460011	0.100001
11	38	4.083173460011	0.100001
11	39	4.183174460011	0.100001
11	40	4.283175460011	0.100001
11	41	4.383176460011	0.100001
11	42	4.483177460011	0.100001
11	43	4.583178460011	0.030001
11	56	5.943194460011	0.100001
11	57	6.043195460011	0.100001
11	58	6.143196460011	0.100001
11	59	6.243197460011	0.100001
11	60	6.343198460011	0.100001
11	61	6.443199460011	0.100001
11	62	6.543200460011	0.100001
11	65	6.643201460011	0.100001
11	66	6.743202460011	0.100001
11	67	6.843203460011	0.100001
11	68	6.943204460011	0.100001
11	69	7.043205460011	0.100001
11	70	7.143206460011	0.100001
11	73	7.243207460011	0.100001
11	74	7.343208460011	0.100001
11	75	7.443209460011	0.100001
11	76	7.543210460011	0.100001
11	77	7.643211460011	0.100001
11	78	7.743212460011	0.100001
11	79	7.843213460011	0.080001
11	84	9.823234460011	0.100001
11	85	9.923235460011	0.100001
11	86	10.023236460011	0.090001
11	89	10.313240460011	0.100001
11	90	10.413241460011	0.100001
11	91	10.513242460011	0.100001
11	92	10.613243460011	0.100001
11	93	10.713244460011	0.100001
11	94	10.813245460011	0.100001
11	95	10.913246460011	0.100001
11	96	11.013247460011	0.100001
11	97	11.113248460011	0.100001
11	98	11.213249460011	0.100001
11	101	12.213260460011	0.100001
11	102	12.313261460011	0.100001
11	103	12.413262460011	0.100001
11	104	12.513263460011	0.100001
11	105	12.613264460011	0.050001
11	108	13.063270460011	0.100001
11	109	13.163271460011	0.100001
11	110	13.263272460011	0.100001
11	111	13.363273460011	0.100001
11	112	13.463274460011	0.100001
11	115	13.963280460011	0.100001
11	116	14.063281460011	0.100001
11	117	14.163282460011	0.090001
11	120	14.453286460011	0.100001
11	121	14.553287460011	0.100001
11	124	14.653288460011	0.100001
11	125	14.753289460011	0.100001
11	126	14.853290460011	0.100001
11	127	14.953291460011	0.100001
11	128	15.053292460011	0.100001
11	129	15.153293460011	0.100001
11	130	15.253294460011	0.100001
11	131	15.353295460011	0.100001
11	132	15.453296460011	0.100001
11	133	15.553297460011	0.100001
11	134	15.653298460011	0.100001
11	135	15.753299460011	0.100001
11	136	15.853300460011	0.100001
11	137	15.953301460011	0.050001
11	144	17.503318460011	0.100001
11	145	17.603319460011	0.100001
11	146	17.703320460011	0.100001
11	147	17.803321460011	0.100001
11	148	17.903322460011	0.100001
11	149	18.003323460011	0.100001
11	150	18.103324460011	0.100001
11	151	18.203325460011	0.100001
11	152	18.303326460011	0.100001
11	155	18.403327460011	0.100001
11	156	18.503328460011	0.080001
11	163	19.583340460011	0.100001
11	164	19.683341460011	0.100001
11	165	19.783342460011	0.100001
11	166	19.883343460011	0.100001
11	167	19.983344460011	0.100001
11	168	20.083345460011	0.100001
11	169	20.183346460011	0.020001
11	174	20.813355460011	0.100001
11	175	20.913356460011	0.100001
11	176	21.013357460011	0.100001
11	177	21.113358460011	0.100001
11	178	21.213359460011	0.100001
11	179	21.313360460011	0.100001
11	180	21.413361460011	0.100001
11	181	21.513362460011	0.100001
11	182	21.613363460011	0.100001
11	183	21.713364460011	0.100001
11	184	21.813365460011	0.070001
11	193	22.883377460011	0.100001
11	194	22.983378460011	0.100001
11	195	23.083379460011	0.100001
11	196	23.183380460011	0.100001
11	197	23.283381460011	0.100001
11	198	23.383382460011	0.100001
11	199	23.483383460011	0.100001
11	200	23.583384460011	0.100001
11	201	23.683385460011	0.100001
11	210	24.653396460011	0.100001
11	211	24.753397460011	0.100001
11	212	24.853398460011	0.100001
11	213	24.953399460011	0.100001
11	214	25.053400460011	0.100001
11	215	25.153401460011	0.100001
11	216	25.253402460011	0.100001
11	217	25.353403460011	0.060001
11	224	26.113412460011	0.100001
11	225	26.213413460011	0.100001
11	226	26.313414460011	0.100001
11	227	26.413415460011	0.100001
11	228	26.513416460011	0.100001
11	229	26.613417460011	0.020001
11	232	27.133424460011	0.100001
11	233	27.233425460011	0.100001
11	234	27.333426460011	0.100001
11	235	27.433427460011	0.100001
11	236	27.533428460011	0.060001
11	239	27.993434460011	0.100001
11	240	28.093435460011	0.100001
11	243	28.193436460011	0.100001
11	244	28.293437460011	0.100001
11	245	28.393438460011	0.100001
11	246	28.493439460011	0.100001
11	247	28.593440460011	0.100001
11	248	28.693441460011	0.100001
11	249	28.793442460011	0.100001
11	250	28.893443460011	0.100001
11	251	28.993444460011	0.100001
11	252	29.093445460011	0.100001
11	253	29.193446460011	0.100001
11	254	29.293447460011	0.100001
11	255	29.393448460011	0.100001
11	256	29.493449460011	0.100001
11	257	29.593450460011	0.100001
11	258	29.693451460011	0.030001
11	263	31.423470460011	0.100001
11	264	31.523471460011	0.020001
11	267	31.643474460011	0.100001
11	268	31.743475460011	0.100001
11	269	31.843476460011	0.100001
11	270	31.943477460011	0.100001
11	271	32.043478460011	0.100001
11	272	32.143479460011	0.100001
11	273	32.243480460011	0.100001
11	274	32.343481460011	0.100001
11	275	32.443482460011	0.090001
11	280	33.333492460011	0.100001
11	281	33.433493460011	0.100001
11	282	33.533494460011	0.100001
11	283	33.633495460011	0.100001
11	284	33.733496460011	0.100001
11	285	33.833497460011	0.100001
11	286	33.933498460011	0.100001
11	287	34.033499460011	0.100001
11	292	34.833508460011	0.100001
11	293	34.933509460011	0.100001
11	294	35.033510460011	0.100001
11	295	35.133511460011	0.100001
11	296	35.233512460011	0.100001
11	301	35.813519460011	0.100001
11	304	35.913520460011	0.100001
11	305	36.013521460011	0.100001
11	306	36.113522460011	0.100001
11	307	36.213523460011	0.100001
11	308	36.313524460011	0.060001
11	311	36.873531460011	0.100001
11	312	36.973532460011	0.050001
11	317	37.123535460011	0.100001
11	318	37.223536460011	0.100001
11	319	37.323537460011	0.100001
11	320	37.423538460011	0.050001
11	327	37.773543460011	0.100001
11	328	37.873544460011	0.100001
11	329	37.973545460011	0.100001
11	330	38.073546460011	0.100001
11	331	38.173547460011	0.100001
11	332	38.273548460011	0.060001
11	341	38.863556460011	0.100001
11	342	38.963557460011	0.100001
11	343	39.063558460011	0.100001
11	344	39.163559460011	0.100001
11	347	39.263560460011	0.100001
11	348	39.363561460011	0.100001
11	349	39.463562460011	0.030001
11	352	40.093570460011	0.100001
11	353	40.193571460011	0.100001
11	354	40.293572460011	0.100001
11	355	40.393573460011	0.100001
11	356	40.493574460011	0.100001
11	357	40.593575460011	0.100001
11	358	40.693576460011	0.100001
11	359	40.793577460011	0.100001
11	360	40.893578460011	0.030001
11	363	41.723588460011	0.100001
11	366	41.823589460011	0.100001
11	369	41.923590460011	0.030001
11	374	42.173595460011	0.100001
11	375	42.273596460011	0.100001
11	376	42.373597460011	0.100001
11	377	42.473598460011	0.100001
11	378	42.573599460011	0.100001
11	383	42.673600460011	0.100001
11	390	43.333608460011	0.100001
11	391	43.433609460011	0.100001
11	392	43.533610460011	0.100001
11	393	43.633611460011	0.100001
11	394	43.733612460011	0.100001
11	395	43.833613460011	0.100001
11	396	43.933614460011	0.030001
11	399	44.563622460011	0.100001
11	400	44.663623460011	0.100001
11	401	44.763624460011	0.100001
11	402	44.863625460011	0.100001
11	403	44.963626460011	0.100001
11	404	45.063627460011	0.100001
11	405	45.163628460011	0.100001
11	406	45.263629460011	0.100001
11	407	45.363630460011	0.100001
11	408	45.463631460011	0.100001
11	409	45.563632460011	0.100001
11	410	45.663633460011	0.100001
11	411	45.763634460011	0.100001
11	412	45.863635460011	0.100001
11	413	45.963636460011	0.100001
11	416	46.063637460011	0.100001
11	417	46.163638460011	0.100001
11	418	46.263639460011	0.100001
11	419	46.363640460011	0.100001
11	420	46.463641460011	0.100001
11	421	46.563642460011	0.100001
11	422	46.663643460011	0.100001
11	423	46.763644460011	0.100001
11	424	46.863645460011	0.100001
11	425	46.963646460011	0.100001
11	426	47.063647460011	0.100001
11	427	47.163648460011	0.100001
11	428	47.263649460011	0.100001
11	429	47.363650460011	0.100001
11	430	47.463651460011	0.100001
11	431	47.563652460011	0.100001
11	432	47.663653460011	0.100001
11	433	47.763654460011	0.010001
11	440	50.973688460011	0.100001
11	441	51.073689460011	0.100001
11	442	51.173690460011	0.100001
11	443	51.273691460011	0.070001
11	446	51.643696460011	0.100001
11	447	51.743697460011	0.100001
11	448	51.843698460011	0.100001
11	449	51.943699460011	0.080001
11	456	52.393705460011	0.100001
11	457	52.493706460011	0.100001
11	458	52.593707460011	0.100001
11	459	52.693708460011	0.100001
11	460	52.793709460011	0.100001
11	461	52.893710460011	0.100001
11	466	52.993711460011	0.070001
11	471	53.663719460011	0.100001
11	472	53.763720460011	0.100001
11	473	53.863721460011	0.020001
11	476	54.083725460011	0.100001
11	477	54.183726460011	0.100001
11	478	54.283727460011	0.100001
11	479	54.383728460011	0.100001
11	480	54.483729460011	0.100001
11	481	54.583730460011	0.100001
11	482	54.683731460011	0.050001
11	491	55.393741460011	0.100001
11	492	55.493742460011	0.100001
11	493	55.593743460011	0.100001
11	494	55.693744460011	0.100001
11	495	55.793745460011	0.100001
11	496	55.893746460011	0.100001
11	497	55.993747460011	0.100001
11	498	56.093748460011	0.100001
11	499	56.193749460011	0.100001
11	500	56.293750460011	0.100001
11	501	56.393751460011	0.100001
11	502	56.493752460011	0.100001
11	503	56.593753460011	0.060001
11	510	57.853767460011	0.100001
11	513	57.953768460011	0.100001
11	514	58.053769460011	0.100001
11	515	58.153770460011	0.100001
11	516	58.253771460011	0.020001
11	521	58.673777460011	0.100001
11	522	58.773778460011	0.100001
11	523	58.873779460011	0.100001
11	524	58.973780460011	0.100001
11	525	59.073781460011	0.100001
11	526	59.173782460011	0.100001
11	527	59.273783460011	0.100001
11	528	59.373784460011	0.100001
11	529	59.473785460011	0.100001
11	530	59.573786460011	0.100001
11	531	59.673787460011	0.100001
11	532	59.773788460011	0.100001
11	533	59.873789460011	0.100001
11	536	59.973790460011	0.100001
11	537	60.073791460011	0.100001
11	538	60.173792460011	0.100001
11	539	60.273793460011	0.100001
11	540	60.373794460011	0.100001
11	541	60.473795460011	0.100001
11	542	60.573796460011	0.100001
11	543	60.673797460011	0.100001
11	544	60.773798460011	0.100001
11	545	60.873799460011	0.050001
11	548	63.123823460011	0.100001
11	549	63.223824460011	0.100001
11	550	63.323825460011	0.100001
11	551	63.423826460011	0.100001
11	552	63.523827460011	0.100001
11	555	63.623828460011	0.050001
11	558	64.173835460011	0.100001
11	559	64.273836460011	0.100001
11	560	64.373837460011	0.100001
11	563	64.473838460011	0.040001
11	568	64.883844460011	0.100001
11	569	64.983845460011	0.100001
11	570	65.083846460011	0.100001
11	573	65.183847460011	0.100001
11	574	65.283848460011	0.100001
11	575	65.383849460011	0.100001
11	576	65.483850460011	0.100001
11	581	66.183858460011	0.100001
11	582	66.283859460011	0.100001
11	583	66.383860460011	0.100001
11	584	66.483861460011	0.100001
11	585	66.583862460011	0.100001
11	586	66.683863460011	0.100001
11	589	66.783864460011	0.100001
11	590	66.883865460011	0.100001
11	591	66.983866460011	0.100001
11	594	67.083867460011	0.100001
11	595	67.183868460011	0.100001
11	596	67.283869460011	0.100001
11	597	67.383870460011	0.070001
11	600	68.653884460011	0.100001
11	601	68.753885460011	0.100001
11	602	68.853886460011	0.100001
11	603	68.953887460011	0.100001
11	604	69.053888460011	0.100001
11	605	69.153889460011	0.100001
11	606	69.253890460011	0.100001
11	607	69.353891460011	0.100001
11	608	69.453892460011	0.100001
11	609	69.553893460011	0.100001
11	610	69.653894460011	0.100001
11	613	69.753895460011	0.100001
11	614	69.853896460011	0.100001
11	615	69.953897460011	0.100001
11	616	70.053898460011	0.100001
11	621	71.553914460011	0.100001
11	622	71.653915460011	0.040001
11	625	71.793918460011	0.100001
11	626	71.893919460011	0.100001
11	627	71.993920460011	0.100001
11	628	72.093921460011	0.100001
11	629	72.193922460011	0.100001
11	632	72.693928460011	0.100001
11	635	72.793929460011	0.100001
11	636	72.893930460011	0.100001
11	639	72.993931460011	0.100001
11	640	73.093932460011	0.020001
11	647	73.513938460011	0.100001
11	648	73.613939460011	0.100001
11	649	73.713940460011	0.100001
11	650	73.813941460011	0.100001
11	651	73.913942460011	0.100001
11	652	74.013943460011	0.010001
11	657	74.523950460011	0.100001
11	658	74.623951460011	0.100001
11	659	74.723952460011	0.100001
11	660	74.823953460011	0.100001
11	661	74.923954460011	0.100001
11	662	75.023955460011	0.100001
11	663	75.123956460011	0.100001
11	664	75.223957460011	0.100001
11	665	75.323958460011	0.100001
11	666	75.423959460011	0.100001
11	667	75.523960460011	0.100001
11	668	75.623961460011	0.100001
11	669	75.723962460011	0.100001
11	670	75.823963460011	0.100001
11	671	75.923964460011	0.100001
11	672	76.023965460011	0.080001
11	675	77.603982460011	0.100001
11	676	77.703983460011	0.100001
11	677	77.803984460011	0.030001
11	684	78.113990460011	0.100001
11	685	78.213991460011	0.100001
11	686	78.313992460011	0.100001
11	687	78.413993460011	0.100001
11	688	78.513994460011	0.100001
11	689	78.613995460011	0.100001
11	692	78.713996460011	0.100001
11	693	78.813997460011	0.050001
11	698	79.564006460011	0.100001
11	699	79.664007460011	0.100001
11	702	79.764008460011	0.100001
11	703	79.864009460011	0.100001
11	704	79.964010460011	0.100001
11	705	80.064011460011	0.020001
11	708	80.584018460011	0.100001
11	709	80.684019460011	0.100001
11	710	80.784020460011	0.100001
11	711	80.884021460011	0.100001
11	712	80.984022460011	0.080001
11	721	81.564029460011	0.100001
11	722	81.664030460011	0.100001
11	723	81.764031460011	0.100001
11	726	81.864032460011	0.100001
11	727	81.964033460011	0.100001
11	728	82.064034460011	0.100001
11	729	82.164035460011	0.100001
11	730	82.264036460011	0.100001
11	731	82.364037460011	0.100001
11	732	82.464038460011	0.100001
11	733	82.564039460011	0.050001
11	740	83.704052460011	0.100001
11	741	83.804053460011	0.100001
11	742	83.904054460011	0.100001
11	743	84.004055460011	0.100001
11	744	84.104056460011	0.100001
11	745	84.204057460011	0.100001
11	746	84.304058460011	0.100001
11	747	84.404059460011	0.100001
11	748	84.504060460011	0.040001
11	755	85.344070460011	0.100001
11	756	85.444071460011	0.100001
11	757	85.544072460011	0.100001
11	760	85.844076460011	0.100001
11	761	85.944077460011	0.100001
11	762	86.044078460011	0.100001
11	763	86.144079460011	0.100001
11	764	86.244080460011	0.100001
11	765	86.344081460011	0.100001
11	766	86.444082460011	0.100001
11	767	86.544083460011	0.100001
11	768	86.644084460011	0.100001
11	769	86.744085460011	0.100001
11	770	86.844086460011	0.100001
11	771	86.944087460011	0.100001
11	772	87.044088460011	0.100001
11	773	87.144089460011	0.050001
11	776	88.494104460011	0.100001
11	777	88.594105460011	0.100001
11	778	88.694106460011	0.100001
11	779	88.794107460011	0.100001
11	780	88.894108460011	0.100001
11	781	88.994109460011	0.100001
11	782	89.094110460011	0.100001
11	783	89.194111460011	0.100001
11	784	89.294112460011	0.100001
11	785	89.394113460011	0.100001
11	786	89.494114460011	0.100001
11	789	89.594115460011	0.100001
11	790	89.694116460011	0.100001
11	791	89.794117460011	0.030001
11	796	91.124132460011	0.100001
11	797	91.224133460011	0.100001
11	798	91.324134460011	0.100001
11	799	91.424135460011	0.050001
11	802	91.774140460011	0.100001
11	803	91.874141460011	0.100001
11	804	91.974142460011	0.100001
11	807	92.074143460011	0.100001
11	808	92.174144460011	0.100001
11	809	92.274145460011	0.100001
11	810	92.374146460011	0.100001
11	811	92.474147460011	0.100001
11	812	92.574148460011	0.100001
11	813	92.674149460011	0.100001
11	814	92.774150460011	0.100001
11	815	92.874151460011	0.020001
11	820	93.994164460011	0.100001
11	821	94.094165460011	0.100001
11	824	94.194166460011	0.100001
11	825	94.294167460011	0.100001
11	826	94.394168460011	0.100001
11	827	94.494169460011	0.100001
11	828	94.594170460011	0.100001
11	829	94.694171460011	0.020001
11	836	95.414180460011	0.100001
11	837	95.514181460011	0.100001
11	838	95.614182460011	0.100001
11	839	95.714183460011	0.010001
11	842	96.024188460011	0.100001
11	843	96.124189460011	0.100001
11	846	96.224190460011	0.100001
11	849	96.524194460011	0.100001
11	850	96.624195460011	0.100001
11	851	96.724196460011	0.100001
11	852	96.824197460011	0.100001
11	853	96.924198460011	0.100001
11	854	97.024199460011	0.100001
11	855	97.124200460011	0.100001
11	856	97.224201460011	0.100001
11	857	97.324202460011	0.100001
11	860	97.424203460011	0.100001
11	861	97.524204460011	0.100001
11	862	97.624205460011	0.100001
11	865	97.724206460011	0.080001
11	870	99.004220460011	0.100001
11	871	99.104221460011	0.100001
11	872	99.204222460011	0.100001
11	873	99.304223460011	0.100001
11	874	99.404224460011	0.100001
11	875	99.504225460011	0.100001
11	876	99.604226460011	0.100001
11	877	99.704227460011	0.100001
11	878	99.804228460011	0.100001
11	879	99.904229460011	0.100001
11	880	100.004230460011	0.100001
11	881	100.104231460011	0.100001
11	882	100.204232460011	0.100001
11	883	100.304233460011	0.100001
11	884	100.404234460011	0.100001
11	885	100.504235460011	0.100001
11	886	100.604236460011	0.100001
11	887	100.704237460011	0.100001
11	888	100.804238460011	0.100001
11	889	100.904239460011	0.100001
11	890	101.004240460011	0.010001
11	893	103.014262460011	0.100001
11	894	103.114263460011	0.100001
11	895	103.214264460011	0.100001
11	896	103.314265460011	0.100001
11	897	103.414266460011	0.010001
11	900	103.824272460011	0.100001
11	901	103.924273460011	0.100001
11	902	104.024274460011	0.100001
11	903	104.124275460011	0.100001
11	904	104.224276460011	0.100001
11	905	104.324277460011	0.100001
11	906	104.424278460011	0.100001
11	907	104.524279460011	0.100001
11	908	104.624280460011	0.100001
11	909	104.724281460011	0.100001
11	910	104.824282460011	0.100001
11	911	104.924283460011	0.100001
11	912	105.024284460011	0.100001
11	913	105.124285460011	0.100001
11	916	105.224286460011	0.100001
11	917	105.324287460011	0.100001
11	918	105.424288460011	0.100001
11	919	105.524289460011	0.100001
11	920	105.624290460011	0.070001
11	925	107.494310460011	0.100001
11	926	107.594311460011	0.100001
11	927	107.694312460011	0.100001
11	928	107.794313460011	0.100001
11	929	107.894314460011	0.100001
11	930	107.994315460011	0.100001
11	931	108.094316460011	0.010001
11	934	108.704324460011	0.100001
11	935	108.804325460011	0.100001
11	936	108.904326460011	0.100001
11	937	109.004327460011	0.030001
11	940	109.334332460011	0.100001
11	943	109.434333460011	0.100001
11	944	109.534334460011	0.100001
11	945	109.634335460011	0.100001
11	946	109.734336460011	0.100001
11	949	109.834337460011	0.070001
11	952	110.404344460011	0.100001
11	953	110.504345460011	0.100001
11	954	110.604346460011	0.100001
11	955	110.704347460011	0.080001
11	958	111.084352460011	0.100001
11	959	111.184353460011	0.100001
11	960	111.284354460011	0.100001
11	961	111.384355460011	0.100001
11	964	111.484356460011	0.100001
11	965	111.584357460011	0.100001
11	966	111.684358460011	0.040001
11	971	112.324366460011	0.100001
11	972	112.424367460011	0.100001
11	975	112.624370460011	0.100001
11	976	112.724371460011	0.100001
11	977	112.824372460011	0.090001
11	988	113.244379460011	0.100001
11	989	113.344380460011	0.100001
11	990	113.444381460011	0.100001
11	993	113.544382460011	0.100001
11	994	113.644383460011	0.100001
11	995	113.744384460011	0.100001
11	996	113.844385460011	0.030001
11	999	114.474393460011	0.100001
11	1000	114.574394460011	0.050001
11	1005	114.814398460011	0.100001
11	1006	114.914399460011	0.100001
11	1007	115.014400460011	0.100001
11	1008	115.114401460011	0.100001
11	1011	115.214402460011	0.100001
11	1012	115.314403460011	0.100001
11	1013	115.414404460011	0.100001
11	1014	115.514405460011	0.100001
11	1015	115.614406460011	0.100001
11	1016	115.714407460011	0.100001
11	1017	115.814408460011	0.100001
11	1018	115.914409460011	0.100001
11	1019	116.014410460011	0.100001
11	1020	116.114411460011	0.100001
11	1021	116.214412460011	0.100001
11	1022	116.314413460011	0.100001
11	1023	116.414414460011	0.100001
11	1024	116.514415460011	0.100001
11	1027	116.614416460011	0.100001
11	1028	116.714417460011	0.100001
11	1029	116.814418460011	0.100001
11	1032	116.914419460011	0.100001
11	1033	117.014420460011	0.100001
11	1034	117.114421460011	0.100001
11	1035	117.214422460011	0.080001
11	1046	119.694448460011	0.100001
11	1047	119.794449460011	0.100001
11	1048	119.894450460011	0.100001
11	1049	119.994451460011	0.100001
11	1050	120.094452460011	0.100001
11	1051	120.194453460011	0.100001
11	1054	120.294454460011	0.100001
11	1057	120.394455460011	0.100001
11	1058	120.494456460011	0.100001
11	1059	120.594457460011	0.100001
11	1060	120.694458460011	0.100001
11	1061	120.794459460011	0.100001
11	1062	120.894460460011	0.100001
11	1063	120.994461460011	0.100001
11	1064	121.094462460011	0.100001
11	1065	121.194463460011	0.010001
11	1068	122.704480460011	0.100001
11	1069	122.804481460011	0.100001
11	1070	122.904482460011	0.100001
11	1071	123.004483460011	0.100001
11	1072	123.104484460011	0.100001
11	1073	123.204485460011	0.100001
11	1074	123.304486460011	0.100001
11	1075	123.404487460011	0.100001
11	1076	123.504488460011	0.100001
11	1077	123.604489460011	0.100001
11	1078	123.704490460011	0.100001
11	1079	123.804491460011	0.100001
11	1080	123.904492460011	0.100001
11	1081	124.004493460011	0.100001
11	1082	124.104494460011	0.010001
11	1085	125.514510460011	0.100001
11	1086	125.614511460011	0.100001
11	1087	125.714512460011	0.100001
11	1088	125.814513460011	0.100001
11	1089	125.914514460011	0.100001
11	1090	126.014515460011	0.100001
11	1091	126.114516460011	0.100001
11	1094	126.214517460011	0.100001
11	1095	126.314518460011	0.100001
11	1096	126.414519460011	0.100001
11	1097	126.514520460011	0.100001
11	1098	126.614521460011	0.100001
11	1101	126.714522460011	0.010001
11	1108	127.944537460011	0.100001
11	1109	128.044538460011	0.100001
11	1110	128.144539460011	0.100001
11	1111	128.244540460011	0.100001
11	1112	128.344541460011	0.020001
11	1115	128.764547460011	0.100001
11	1116	128.864548460011	0.100001
11	1117	128.964549460011	0.100001
11	1118	129.064550460011	0.100001
11	1119	129.164551460011	0.100001
11	1120	129.264552460011	0.070001
11	1131	130.004561460011	0.100001
11	1132	130.104562460011	0.100001
11	1133	130.204563460011	0.100001
11	1134	130.304564460011	0.100001
11	1135	130.404565460011	0.100001
11	1136	130.504566460011	0.100001
11	1137	130.604567460011	0.100001
11	1138	130.704568460011	0.100001
11	1139	130.804569460011	0.100001
11	1140	130.904570460011	0.100001
11	1141	131.004571460011	0.100001
11	1142	131.104572460011	0.030001
11	1145	132.234585460011	0.100001
11	1146	132.334586460011	0.100001
11	1147	132.434587460011	0.100001
11	1148	132.534588460011	0.100001
11	1149	132.634589460011	0.100001
11	1150	132.734590460011	0.100001
11	1151	132.834591460011	0.100001
11	1152	132.934592460011	0.100001
11	1153	133.034593460011	0.100001
11	1154	133.134594460011	0.100001
11	1155	133.234595460011	0.100001
11	1156	133.334596460011	0.100001
11	1159	134.534609460011	0.100001
11	1160	134.634610460011	0.100001
11	1161	134.734611460011	0.100001
11	1162	134.834612460011	0.010001
11	1167	135.164618460011	0.100001
11	1168	135.264619460011	0.100001
11	1169	135.364620460011	0.100001
11	1172	135.464621460011	0.100001
11	1175	135.564622460011	0.100001
11	1176	135.664623460011	0.100001
11	1179	135.764624460011	0.100001
11	1180	135.864625460011	0.100001
11	1181	135.964626460011	0.100001
11	1182	136.064627460011	0.100001
11	1183	136.164628460011	0.100001
11	1184	136.264629460011	0.100001
11	1185	136.364630460011	0.100001
11	1188	136.464631460011	0.100001
11	1189	136.564632460011	0.100001
11	1190	136.664633460011	0.100001
11	1191	136.764634460011	0.100001
11	1192	136.864635460011	0.100001
11	1193	136.964636460011	0.100001
11	1194	137.064637460011	0.100001
11	1195	137.164638460011	0.100001
11	1196	137.264639460011	0.100001
11	1197	137.364640460011	0.100001
11	1198	137.464641460011	0.100001
11	1199	137.564642460011	0.020001
11	1208	140.014669460011	0.100001
11	1209	140.114670460011	0.050001
11	1212	140.264673460011	0.100001
11	1213	140.364674460011	0.100001
11	1214	140.464675460011	0.100001
11	1215	140.564676460011	0.100001
11	1222	140.994682460011	0.100001
11	1223	141.094683460011	0.100001
11	1224	141.194684460011	0.040001
11	1229	141.434688460011	0.100001
11	1230	141.534689460011	0.030001
11	1235	141.674693460011	0.100001
11	1236	141.774694460011	0.010001
11	1243	141.884697460011	0.100001
11	1244	141.984698460011	0.100001
11	1245	142.084699460011	0.100001
11	1248	142.184700460011	0.100001
11	1249	142.284701460011	0.100001
11	1250	142.384702460011	0.100001
11	1251	142.484703460011	0.100001
11	1252	142.584704460011	0.100001
11	1253	142.684705460011	0.100001
11	1254	142.784706460011	0.100001
11	1255	142.884707460011	0.100001
11	1256	142.984708460011	0.100001
11	1257	143.084709460011	0.100001
11	1258	143.184710460011	0.100001
11	1259	143.284711460011	0.100001
11	1260	143.384712460011	0.070001
11	1267	144.954729460011	0.100001
11	1268	145.054730460011	0.100001
11	1269	145.154731460011	0.100001
11	1270	145.254732460011	0.100001
11	1271	145.354733460011	0.100001
11	1274	145.454734460011	0.100001
11	1275	145.554735460011	0.100001
11	1276	145.654736460011	0.100001
11	1277	145.754737460011	0.100001
11	1278	145.854738460011	0.010001
11	1285	146.764749460011	0.100001
11	1286	146.864750460011	0.060001
11	1289	147.024753460011	0.100001
11	1290	147.124754460011	0.100001
11	1291	147.224755460011	0.100001
11	1292	147.324756460011	0.100001
11	1293	147.424757460011	0.100001
11	1294	147.524758460011	0.100001
11	1295	147.624759460011	0.100001
11	1296	147.724760460011	0.100001
11	1297	147.824761460011	0.100001
11	1298	147.924762460011	0.100001
11	1299	148.024763460011	0.100001
11	1300	148.124764460011	0.100001
11	1301	148.224765460011	0.100001
11	1302	148.324766460011	0.100001
11	1303	148.424767460011	0.100001
11	1304	148.524768460011	0.100001
11	1305	148.624769460011	0.100001
11	1306	148.724770460011	0.100001
11	1307	148.824771460011	0.100001
11	1308	148.924772460011	0.100001
11	1309	149.024773460011	0.100001
11	1310	149.124774460011	0.100001
11	1311	149.224775460011	0.100001
11	1314	149.324776460011	0.100001
11	1317	149.424777460011	0.100001
11	1318	149.524778460011	0.100001